# Force       
# CofR        : (2.929541e+00 0.000000e+00 2.000000e-01)
#
# Time        	total_x total_y total_z	pressure_x pressure_y pressure_z	viscous_x viscous_y viscous_z
0.01           -7.014619e+03 -5.073950e+01 -2.012555e+04 -6.997371e+03 -5.073912e+01 -2.012573e+04 -1.724741e+01 -3.804372e-04 1.836012e-01
0.02           -1.086146e+02 1.187197e+00 3.792413e+02 -9.246492e+01 1.188043e+00 3.788848e+02 -1.614964e+01 -8.460178e-04 3.565016e-01
0.03           -2.429159e+03 -3.810601e+03 7.084520e+03 -2.413108e+03 -3.810600e+03 7.084203e+03 -1.605156e+01 -9.041823e-04 3.164370e-01
0.04           -1.008798e+03 -1.559350e+03 3.305149e+03 -9.928084e+02 -1.559349e+03 3.304851e+03 -1.598997e+01 -9.776903e-04 2.979681e-01
0.05           -4.579015e+02 -6.517206e+02 1.786713e+03 -4.419650e+02 -6.517195e+02 1.786422e+03 -1.593648e+01 -1.079255e-03 2.910204e-01
0.06           -2.342457e+02 -2.783031e+02 1.110353e+03 -2.183721e+02 -2.783019e+02 1.110062e+03 -1.587361e+01 -1.244890e-03 2.913043e-01
0.07           -1.372400e+02 -1.174455e+02 8.055821e+02 -1.214538e+02 -1.174440e+02 8.052854e+02 -1.578620e+01 -1.475254e-03 2.966801e-01
0.08           -9.402227e+01 -4.654122e+01 6.578739e+02 -7.837174e+01 -4.653959e+01 6.575727e+02 -1.565053e+01 -1.622551e-03 3.012182e-01
0.09           -7.318753e+01 -1.538152e+01 5.807616e+02 -5.773753e+01 -1.538038e+01 5.804574e+02 -1.545000e+01 -1.135631e-03 3.042646e-01
0.1            -6.221067e+01 2.821362e+00 5.475280e+02 -4.701054e+01 2.821471e+00 5.472213e+02 -1.520013e+01 -1.086377e-04 3.066806e-01
0.11           -5.649305e+01 8.935502e+00 5.415192e+02 -4.156134e+01 8.935185e+00 5.412100e+02 -1.493171e+01 3.174212e-04 3.092510e-01
0.12           -5.002459e+01 1.403538e+01 5.517879e+02 -3.536542e+01 1.403551e+01 5.514757e+02 -1.465917e+01 -1.283681e-04 3.122011e-01
0.13           -4.693171e+01 1.482679e+01 5.653805e+02 -3.252961e+01 1.482779e+01 5.650656e+02 -1.440210e+01 -1.002972e-03 3.148982e-01
0.14           -4.414679e+01 1.015396e+01 5.780511e+02 -2.998276e+01 1.015550e+01 5.777342e+02 -1.416403e+01 -1.540995e-03 3.168556e-01
0.15           -4.071928e+01 1.102345e+01 5.790945e+02 -2.680410e+01 1.102594e+01 5.787756e+02 -1.391517e+01 -2.490310e-03 3.189693e-01
0.16           -3.884481e+01 9.248608e+00 5.848700e+02 -2.515945e+01 9.251707e+00 5.845489e+02 -1.368536e+01 -3.098811e-03 3.210605e-01
0.17           -3.623902e+01 1.121922e+01 5.936476e+02 -2.279122e+01 1.122323e+01 5.933243e+02 -1.344780e+01 -4.008228e-03 3.233158e-01
0.18           -3.412817e+01 8.914785e+00 5.994475e+02 -2.091080e+01 8.919347e+00 5.991222e+02 -1.321737e+01 -4.561483e-03 3.253125e-01
0.19           -3.234871e+01 8.295363e+00 6.022459e+02 -1.936411e+01 8.300561e+00 6.019184e+02 -1.298460e+01 -5.197717e-03 3.275882e-01
0.2            -3.115277e+01 6.577592e+00 6.152363e+02 -1.839015e+01 6.583132e+00 6.149080e+02 -1.276262e+01 -5.539899e-03 3.283295e-01
0.21           -3.119905e+01 5.611697e-01 6.009832e+02 -1.861785e+01 5.664063e-01 6.006526e+02 -1.258119e+01 -5.236625e-03 3.306145e-01
0.22           -2.924523e+01 1.475294e+00 6.084366e+02 -1.686212e+01 1.480532e+00 6.081045e+02 -1.238311e+01 -5.237410e-03 3.321312e-01
0.23           -2.766938e+01 1.861312e+00 6.073147e+02 -1.548031e+01 1.866701e+00 6.069807e+02 -1.218907e+01 -5.388999e-03 3.339868e-01
0.24           -2.680578e+01 1.246238e+00 6.137839e+02 -1.480695e+01 1.251627e+00 6.134488e+02 -1.199884e+01 -5.388854e-03 3.350296e-01
0.25           -2.563548e+01 7.296572e-01 6.159060e+02 -1.381296e+01 7.348894e-01 6.155698e+02 -1.182252e+01 -5.232134e-03 3.361623e-01
0.26           -2.439195e+01 9.160801e-01 6.195380e+02 -1.275696e+01 9.212879e-01 6.192012e+02 -1.163499e+01 -5.207841e-03 3.367935e-01
0.27           -2.346365e+01 1.162407e+00 6.191774e+02 -1.201339e+01 1.167617e+00 6.188398e+02 -1.145026e+01 -5.209511e-03 3.375548e-01
0.28           -2.252640e+01 4.411493e-01 6.228890e+02 -1.125472e+01 4.460570e-01 6.225506e+02 -1.127168e+01 -4.907760e-03 3.383592e-01
0.29           -2.182401e+01 1.731664e+00 6.240153e+02 -1.071157e+01 1.736609e+00 6.236760e+02 -1.111244e+01 -4.945051e-03 3.392745e-01
0.3            -2.140703e+01 1.507035e+00 6.238283e+02 -1.043411e+01 1.511892e+00 6.234877e+02 -1.097292e+01 -4.856743e-03 3.405928e-01
0.31           -2.082185e+01 1.447729e+00 6.252865e+02 -9.985500e+00 1.452468e+00 6.249446e+02 -1.083635e+01 -4.739450e-03 3.418577e-01
0.32           -2.013659e+01 1.637129e+00 6.279762e+02 -9.433888e+00 1.641939e+00 6.276331e+02 -1.070270e+01 -4.810213e-03 3.430567e-01
0.33           -1.965839e+01 1.023222e+00 6.263916e+02 -9.080345e+00 1.027756e+00 6.260472e+02 -1.057805e+01 -4.533818e-03 3.443856e-01
0.34           -1.914829e+01 7.135819e-01 6.263990e+02 -8.695180e+00 7.181442e-01 6.260533e+02 -1.045311e+01 -4.562371e-03 3.457694e-01
0.35           -1.885841e+01 1.305760e+00 6.271455e+02 -8.511168e+00 1.310479e+00 6.267988e+02 -1.034724e+01 -4.719005e-03 3.466985e-01
0.36           -1.834443e+01 2.667331e+00 6.258440e+02 -8.089677e+00 2.672970e+00 6.254954e+02 -1.025475e+01 -5.638908e-03 3.486712e-01
0.37           -1.797765e+01 1.716479e+00 6.308543e+02 -7.819987e+00 1.722195e+00 6.305048e+02 -1.015767e+01 -5.715683e-03 3.495115e-01
0.38           -1.748941e+01 2.103151e+00 6.277324e+02 -7.427661e+00 2.109638e+00 6.273809e+02 -1.006175e+01 -6.487038e-03 3.515340e-01
0.39           -1.721274e+01 1.340590e+00 6.308425e+02 -7.247948e+00 1.347275e+00 6.304902e+02 -9.964789e+00 -6.684811e-03 3.523223e-01
0.4            -1.676757e+01 1.904778e+00 6.297688e+02 -6.894878e+00 1.912007e+00 6.294144e+02 -9.872694e+00 -7.229118e-03 3.543929e-01
0.41           -1.659057e+01 9.582663e-01 6.318679e+02 -6.804127e+00 9.652093e-01 6.315122e+02 -9.786444e+00 -6.942996e-03 3.556633e-01
0.42           -1.624654e+01 5.193120e-01 6.289747e+02 -6.533851e+00 5.257676e-01 6.286159e+02 -9.712692e+00 -6.455545e-03 3.587249e-01
0.43           -1.600019e+01 7.178730e-01 6.282610e+02 -6.349538e+00 7.240824e-01 6.278999e+02 -9.650656e+00 -6.209401e-03 3.611382e-01
0.44           -1.576104e+01 4.955881e-01 6.302511e+02 -6.176346e+00 5.014777e-01 6.298858e+02 -9.584694e+00 -5.889583e-03 3.653622e-01
0.45           -1.556324e+01 5.495405e-01 6.325371e+02 -6.041350e+00 5.550231e-01 6.321687e+02 -9.521893e+00 -5.482574e-03 3.684604e-01
0.46           -1.542854e+01 6.918264e-01 6.292091e+02 -5.958598e+00 6.975216e-01 6.288346e+02 -9.469938e+00 -5.695191e-03 3.745058e-01
0.47           -1.509889e+01 6.848578e-02 6.311942e+02 -5.686518e+00 7.432694e-02 6.308157e+02 -9.412372e+00 -5.841153e-03 3.785104e-01
0.48           -1.485094e+01 5.219260e-01 6.322338e+02 -5.492948e+00 5.281360e-01 6.318482e+02 -9.357991e+00 -6.210006e-03 3.855847e-01
0.49           -1.500104e+01 7.415564e-01 6.302519e+02 -5.684780e+00 7.486095e-01 6.298608e+02 -9.316263e+00 -7.053120e-03 3.911218e-01
0.5            -1.462009e+01 1.003806e+00 6.325674e+02 -5.345140e+00 1.011478e+00 6.321674e+02 -9.274949e+00 -7.671982e-03 4.000151e-01
0.51           -1.446649e+01 2.980888e-01 6.326916e+02 -5.236593e+00 3.068474e-01 6.322857e+02 -9.229901e+00 -8.758605e-03 4.058760e-01
0.52           -1.415779e+01 4.729828e-01 6.332970e+02 -4.965513e+00 4.817193e-01 6.328820e+02 -9.192281e+00 -8.736564e-03 4.149724e-01
0.53           -1.415820e+01 3.633452e-01 6.326708e+02 -5.008414e+00 3.727315e-01 6.322482e+02 -9.149788e+00 -9.386232e-03 4.226321e-01
0.54           -1.396106e+01 5.029925e-01 6.327029e+02 -4.845851e+00 5.122151e-01 6.322707e+02 -9.115214e+00 -9.222635e-03 4.321474e-01
0.55           -1.376264e+01 9.102947e-02 6.338925e+02 -4.686379e+00 1.004829e-01 6.334520e+02 -9.076263e+00 -9.453402e-03 4.405018e-01
0.56           -1.374239e+01 7.234431e-01 6.322944e+02 -4.690493e+00 7.323704e-01 6.318429e+02 -9.051900e+00 -8.927275e-03 4.515110e-01
0.57           -1.367720e+01 1.974265e-01 6.345013e+02 -4.656122e+00 2.064867e-01 6.340416e+02 -9.021081e+00 -9.060209e-03 4.597453e-01
0.58           -1.341279e+01 4.310374e-01 6.323848e+02 -4.421520e+00 4.385915e-01 6.319156e+02 -8.991265e+00 -7.554027e-03 4.691792e-01
0.59           -1.339584e+01 2.147930e-01 6.333706e+02 -4.434378e+00 2.210924e-01 6.328944e+02 -8.961464e+00 -6.299439e-03 4.761672e-01
0.6            -1.331836e+01 2.286664e-01 6.322781e+02 -4.376145e+00 2.321477e-01 6.317921e+02 -8.942216e+00 -3.481237e-03 4.860497e-01
0.61           -1.329878e+01 7.509320e-02 6.328336e+02 -4.375838e+00 7.690463e-02 6.323412e+02 -8.922945e+00 -1.811434e-03 4.923908e-01
0.62           -1.313250e+01 1.016959e-01 6.330646e+02 -4.226346e+00 1.006534e-01 6.325641e+02 -8.906154e+00 1.042577e-03 5.004419e-01
0.63           -1.320648e+01 4.668204e-01 6.322678e+02 -4.317339e+00 4.639284e-01 6.317615e+02 -8.889143e+00 2.892007e-03 5.062544e-01
0.64           -1.307181e+01 3.418890e-01 6.323483e+02 -4.198712e+00 3.364634e-01 6.318346e+02 -8.873100e+00 5.425630e-03 5.136891e-01
0.65           -1.301665e+01 1.998436e-01 6.327516e+02 -4.167353e+00 1.934064e-01 6.322329e+02 -8.849302e+00 6.437177e-03 5.187337e-01
0.66           -1.287590e+01 5.301299e-01 6.331021e+02 -4.046286e+00 5.226959e-01 6.325767e+02 -8.829616e+00 7.434006e-03 5.254605e-01
0.67           -1.264359e+01 5.837192e-01 6.337477e+02 -3.836718e+00 5.765036e-01 6.332175e+02 -8.806868e+00 7.215542e-03 5.302061e-01
0.68           -1.275804e+01 9.904396e-01 6.337867e+02 -3.965112e+00 9.837196e-01 6.332504e+02 -8.792928e+00 6.720018e-03 5.362481e-01
0.69           -1.274395e+01 3.142998e-01 6.336015e+02 -3.968270e+00 3.073889e-01 6.330620e+02 -8.775682e+00 6.910876e-03 5.395103e-01
0.7            -1.275414e+01 5.903208e-01 6.328844e+02 -3.996730e+00 5.840180e-01 6.323410e+02 -8.757408e+00 6.302849e-03 5.433823e-01
0.71           -1.269625e+01 6.828296e-01 6.340533e+02 -3.968036e+00 6.767427e-01 6.335116e+02 -8.728218e+00 6.086940e-03 5.417106e-01
0.72           -1.254125e+01 4.595932e-01 6.333652e+02 -3.835704e+00 4.545663e-01 6.328247e+02 -8.705549e+00 5.026876e-03 5.405506e-01
0.73           -1.247442e+01 3.165752e-01 6.338227e+02 -3.795386e+00 3.132285e-01 6.332853e+02 -8.679037e+00 3.346784e-03 5.374030e-01
0.74           -1.246637e+01 5.278830e-01 6.336775e+02 -3.814588e+00 5.263204e-01 6.331430e+02 -8.651786e+00 1.562627e-03 5.345111e-01
0.75           -1.250473e+01 4.322411e-01 6.334639e+02 -3.877350e+00 4.313569e-01 6.329335e+02 -8.627382e+00 8.842196e-04 5.304253e-01
0.76           -1.245929e+01 4.780985e-01 6.334058e+02 -3.858866e+00 4.784876e-01 6.328796e+02 -8.600424e+00 -3.890785e-04 5.261629e-01
0.77           -1.246269e+01 5.154317e-01 6.335477e+02 -3.889878e+00 5.160071e-01 6.330266e+02 -8.572816e+00 -5.754178e-04 5.211574e-01
0.78           -1.239714e+01 6.206301e-01 6.340337e+02 -3.852867e+00 6.220849e-01 6.335174e+02 -8.544273e+00 -1.454771e-03 5.162405e-01
0.79           -1.230825e+01 4.693475e-01 6.339800e+02 -3.790876e+00 4.712996e-01 6.334681e+02 -8.517376e+00 -1.952145e-03 5.118870e-01
0.8            -1.230673e+01 5.945702e-01 6.337581e+02 -3.816879e+00 5.969332e-01 6.332512e+02 -8.489846e+00 -2.362969e-03 5.069753e-01
0.81           -1.226838e+01 6.222398e-01 6.338312e+02 -3.805497e+00 6.243568e-01 6.333291e+02 -8.462887e+00 -2.116996e-03 5.020131e-01
0.82           -1.222630e+01 4.675356e-01 6.344138e+02 -3.792973e+00 4.697615e-01 6.339179e+02 -8.433328e+00 -2.225936e-03 4.959261e-01
0.83           -1.219783e+01 4.179716e-01 6.344119e+02 -3.794507e+00 4.197099e-01 6.339226e+02 -8.403323e+00 -1.738278e-03 4.893174e-01
0.84           -1.220826e+01 4.722910e-01 6.339915e+02 -3.834362e+00 4.739180e-01 6.335093e+02 -8.373902e+00 -1.626999e-03 4.822290e-01
0.85           -1.209053e+01 5.018046e-01 6.339573e+02 -3.747640e+00 5.026836e-01 6.334831e+02 -8.342894e+00 -8.790377e-04 4.742290e-01
0.86           -1.204903e+01 6.399672e-01 6.338572e+02 -3.738814e+00 6.407630e-01 6.333922e+02 -8.310214e+00 -7.957339e-04 4.650408e-01
0.87           -1.199218e+01 5.864883e-01 6.340025e+02 -3.714338e+00 5.869788e-01 6.335473e+02 -8.277847e+00 -4.905672e-04 4.552437e-01
0.88           -1.198705e+01 6.242235e-01 6.335787e+02 -3.738598e+00 6.246712e-01 6.331324e+02 -8.248452e+00 -4.477167e-04 4.462638e-01
0.89           -1.197386e+01 5.652695e-01 6.339618e+02 -3.755150e+00 5.652487e-01 6.335241e+02 -8.218705e+00 2.079598e-05 4.377284e-01
0.9            -1.191509e+01 6.446500e-01 6.339511e+02 -3.723377e+00 6.443983e-01 6.335215e+02 -8.191715e+00 2.517537e-04 4.296244e-01
0.91           -1.187989e+01 5.573372e-01 6.343155e+02 -3.717392e+00 5.564363e-01 6.338937e+02 -8.162502e+00 9.008584e-04 4.217478e-01
0.92           -1.184887e+01 6.860280e-01 6.339786e+02 -3.710714e+00 6.849802e-01 6.335642e+02 -8.138159e+00 1.047795e-03 4.144265e-01
0.93           -1.187721e+01 5.042211e-01 6.333919e+02 -3.763939e+00 5.025372e-01 6.329845e+02 -8.113267e+00 1.683829e-03 4.073446e-01
0.94           -1.178780e+01 5.769686e-01 6.333771e+02 -3.699096e+00 5.750616e-01 6.329764e+02 -8.088705e+00 1.907013e-03 4.006784e-01
0.95           -1.175399e+01 6.257412e-01 6.334869e+02 -3.690086e+00 6.236270e-01 6.330931e+02 -8.063900e+00 2.114241e-03 3.938358e-01
0.96           -1.175520e+01 5.985431e-01 6.334950e+02 -3.715462e+00 5.963051e-01 6.331079e+02 -8.039742e+00 2.237953e-03 3.870610e-01
0.97           -1.171200e+01 4.789876e-01 6.330683e+02 -3.697201e+00 4.764140e-01 6.326881e+02 -8.014803e+00 2.573665e-03 3.802326e-01
0.98           -1.173694e+01 6.331821e-01 6.336011e+02 -3.747352e+00 6.306790e-01 6.332277e+02 -7.989590e+00 2.503140e-03 3.733764e-01
0.99           -1.169794e+01 4.352719e-01 6.327540e+02 -3.734237e+00 4.325702e-01 6.323879e+02 -7.963702e+00 2.701719e-03 3.660371e-01
1              -1.172752e+01 5.632458e-01 6.326909e+02 -3.787784e+00 5.605809e-01 6.323318e+02 -7.939740e+00 2.664878e-03 3.590998e-01
1.01           -1.168667e+01 4.940278e-01 6.329059e+02 -3.770731e+00 4.911867e-01 6.325534e+02 -7.915944e+00 2.841084e-03 3.524563e-01
1.02           -1.170473e+01 5.658612e-01 6.329486e+02 -3.811333e+00 5.631074e-01 6.326022e+02 -7.893400e+00 2.753830e-03 3.464705e-01
1.03           -1.170727e+01 5.053179e-01 6.329687e+02 -3.835965e+00 5.028774e-01 6.326282e+02 -7.871300e+00 2.440481e-03 3.405354e-01
1.04           -1.169291e+01 5.376990e-01 6.327615e+02 -3.844830e+00 5.357838e-01 6.324273e+02 -7.848079e+00 1.915147e-03 3.342473e-01
1.05           -1.170938e+01 5.281128e-01 6.327346e+02 -3.884575e+00 5.264437e-01 6.324064e+02 -7.824805e+00 1.669134e-03 3.281616e-01
1.06           -1.167563e+01 3.861584e-01 6.329001e+02 -3.874363e+00 3.846063e-01 6.325776e+02 -7.801264e+00 1.552156e-03 3.224867e-01
1.07           -1.167343e+01 4.911362e-01 6.332820e+02 -3.894994e+00 4.896637e-01 6.329649e+02 -7.778438e+00 1.472435e-03 3.171444e-01
1.08           -1.167414e+01 2.936018e-01 6.329946e+02 -3.917478e+00 2.923390e-01 6.326826e+02 -7.756660e+00 1.262797e-03 3.120038e-01
1.09           -1.166138e+01 5.573607e-01 6.332389e+02 -3.927762e+00 5.562244e-01 6.329319e+02 -7.733623e+00 1.136231e-03 3.070665e-01
1.1            -1.165283e+01 3.126133e-01 6.324804e+02 -3.939871e+00 3.118621e-01 6.321782e+02 -7.712960e+00 7.512287e-04 3.021967e-01
1.11           -1.162003e+01 4.113970e-01 6.328198e+02 -3.930088e+00 4.107545e-01 6.325225e+02 -7.689943e+00 6.425453e-04 2.972781e-01
1.12           -1.161595e+01 3.312801e-01 6.326415e+02 -3.949446e+00 3.305461e-01 6.323494e+02 -7.666506e+00 7.340217e-04 2.921326e-01
1.13           -1.161300e+01 4.548166e-01 6.324641e+02 -3.968779e+00 4.539930e-01 6.321769e+02 -7.644221e+00 8.236125e-04 2.871857e-01
1.14           -1.157380e+01 4.049975e-01 6.325484e+02 -3.950692e+00 4.042123e-01 6.322660e+02 -7.623106e+00 7.851634e-04 2.824754e-01
1.15           -1.157396e+01 4.012232e-01 6.325445e+02 -3.972092e+00 4.004020e-01 6.322664e+02 -7.601868e+00 8.211707e-04 2.781093e-01
1.16           -1.152345e+01 4.446031e-01 6.326856e+02 -3.941066e+00 4.437512e-01 6.324115e+02 -7.582385e+00 8.518486e-04 2.740743e-01
1.17           -1.158315e+01 2.823258e-01 6.323925e+02 -4.020984e+00 2.813268e-01 6.321224e+02 -7.562168e+00 9.990853e-04 2.701615e-01
1.18           -1.159155e+01 3.397881e-01 6.325464e+02 -4.050335e+00 3.387104e-01 6.322801e+02 -7.541211e+00 1.077728e-03 2.662928e-01
1.19           -1.165070e+01 3.034935e-01 6.323022e+02 -4.128258e+00 3.025147e-01 6.320397e+02 -7.522439e+00 9.788137e-04 2.625132e-01
1.2            -1.157143e+01 3.790725e-01 6.327766e+02 -4.067231e+00 3.781236e-01 6.325180e+02 -7.504195e+00 9.489313e-04 2.585840e-01
1.21           -1.157189e+01 3.621278e-01 6.328945e+02 -4.087655e+00 3.610873e-01 6.326401e+02 -7.484236e+00 1.040570e-03 2.544167e-01
1.22           -1.159767e+01 2.955526e-01 6.326888e+02 -4.133269e+00 2.944059e-01 6.324385e+02 -7.464403e+00 1.146710e-03 2.502936e-01
1.23           -1.163887e+01 4.471897e-01 6.326194e+02 -4.192519e+00 4.458379e-01 6.323730e+02 -7.446352e+00 1.351845e-03 2.463318e-01
1.24           -1.157942e+01 4.189542e-01 6.321595e+02 -4.152295e+00 4.174966e-01 6.319171e+02 -7.427126e+00 1.457603e-03 2.423447e-01
1.25           -1.158532e+01 4.183014e-01 6.319948e+02 -4.177341e+00 4.167693e-01 6.317563e+02 -7.407982e+00 1.532058e-03 2.385674e-01
1.26           -1.160658e+01 3.969949e-01 6.322548e+02 -4.216189e+00 3.954579e-01 6.320200e+02 -7.390391e+00 1.537006e-03 2.347710e-01
1.27           -1.165415e+01 5.020619e-01 6.320181e+02 -4.281985e+00 5.006372e-01 6.317870e+02 -7.372167e+00 1.424685e-03 2.311598e-01
1.28           -1.164620e+01 3.585869e-01 6.323607e+02 -4.290797e+00 3.573325e-01 6.321330e+02 -7.355402e+00 1.254447e-03 2.276705e-01
1.29           -1.163664e+01 3.091557e-01 6.320038e+02 -4.299516e+00 3.079013e-01 6.317796e+02 -7.337128e+00 1.254361e-03 2.242181e-01
1.3            -1.164151e+01 4.076356e-01 6.322354e+02 -4.322117e+00 4.064758e-01 6.320146e+02 -7.319391e+00 1.159852e-03 2.207612e-01
1.31           -1.162944e+01 3.175243e-01 6.324071e+02 -4.327868e+00 3.163839e-01 6.321898e+02 -7.301575e+00 1.140415e-03 2.172917e-01
1.32           -1.166759e+01 3.774112e-01 6.321369e+02 -4.382025e+00 3.762712e-01 6.319227e+02 -7.285569e+00 1.140014e-03 2.141249e-01
1.33           -1.163127e+01 3.759863e-01 6.319337e+02 -4.362695e+00 3.750756e-01 6.317228e+02 -7.268575e+00 9.107136e-04 2.108907e-01
1.34           -1.162625e+01 4.268912e-01 6.318903e+02 -4.374592e+00 4.262448e-01 6.316826e+02 -7.251658e+00 6.463831e-04 2.077161e-01
1.35           -1.170936e+01 4.192790e-01 6.319568e+02 -4.473071e+00 4.186404e-01 6.317522e+02 -7.236293e+00 6.386034e-04 2.046000e-01
1.36           -1.167602e+01 4.030053e-01 6.320869e+02 -4.454231e+00 4.024302e-01 6.318852e+02 -7.221790e+00 5.750235e-04 2.017107e-01
1.37           -1.165905e+01 4.553625e-01 6.320747e+02 -4.451991e+00 4.548205e-01 6.318757e+02 -7.207055e+00 5.420433e-04 1.990114e-01
1.38           -1.164027e+01 3.163346e-01 6.317892e+02 -4.447096e+00 3.158774e-01 6.315927e+02 -7.193176e+00 4.571560e-04 1.964759e-01
1.39           -1.163733e+01 3.213492e-01 6.316909e+02 -4.458269e+00 3.209607e-01 6.314968e+02 -7.179062e+00 3.885098e-04 1.940197e-01
1.4            -1.164568e+01 3.691934e-01 6.316342e+02 -4.480604e+00 3.689189e-01 6.314425e+02 -7.165075e+00 2.745303e-04 1.916797e-01
1.41           -1.166582e+01 3.350266e-01 6.320925e+02 -4.513786e+00 3.347875e-01 6.319032e+02 -7.152039e+00 2.391309e-04 1.892843e-01
1.42           -1.167875e+01 3.491933e-01 6.318908e+02 -4.540155e+00 3.490546e-01 6.317039e+02 -7.138592e+00 1.386497e-04 1.869000e-01
1.43           -1.167012e+01 3.164442e-01 6.318120e+02 -4.544735e+00 3.163733e-01 6.316274e+02 -7.125390e+00 7.084314e-05 1.845346e-01
1.44           -1.171640e+01 2.029761e-01 6.315018e+02 -4.603996e+00 2.030352e-01 6.313196e+02 -7.112408e+00 -5.905023e-05 1.822184e-01
1.45           -1.171563e+01 2.884166e-01 6.315963e+02 -4.616340e+00 2.885944e-01 6.314164e+02 -7.099288e+00 -1.777348e-04 1.798979e-01
1.46           -1.174553e+01 3.005804e-01 6.314367e+02 -4.659509e+00 3.008320e-01 6.312591e+02 -7.086018e+00 -2.516542e-04 1.775431e-01
1.47           -1.177516e+01 3.552142e-01 6.315931e+02 -4.702584e+00 3.555543e-01 6.314180e+02 -7.072579e+00 -3.400889e-04 1.750874e-01
1.48           -1.179801e+01 3.604944e-01 6.316425e+02 -4.737496e+00 3.609791e-01 6.314699e+02 -7.060511e+00 -4.847356e-04 1.726234e-01
1.49           -1.179042e+01 3.502858e-01 6.315352e+02 -4.742252e+00 3.508276e-01 6.313649e+02 -7.048168e+00 -5.417870e-04 1.702234e-01
1.5            -1.179670e+01 3.459098e-01 6.314326e+02 -4.760462e+00 3.465180e-01 6.312647e+02 -7.036234e+00 -6.081581e-04 1.679279e-01
1.51           -1.182012e+01 2.963173e-01 6.313020e+02 -4.795515e+00 2.970525e-01 6.311363e+02 -7.024608e+00 -7.352409e-04 1.656700e-01
1.52           -1.183021e+01 2.804357e-01 6.310516e+02 -4.817602e+00 2.813450e-01 6.308883e+02 -7.012604e+00 -9.093268e-04 1.633652e-01
1.53           -1.183336e+01 2.853000e-01 6.309191e+02 -4.832923e+00 2.864061e-01 6.307580e+02 -7.000433e+00 -1.106131e-03 1.611078e-01
1.54           -1.188511e+01 2.830294e-01 6.312010e+02 -4.896714e+00 2.843516e-01 6.310423e+02 -6.988392e+00 -1.322276e-03 1.587715e-01
1.55           -1.190217e+01 2.353231e-01 6.310777e+02 -4.926015e+00 2.368467e-01 6.309211e+02 -6.976154e+00 -1.523599e-03 1.565196e-01
1.56           -1.192129e+01 2.123756e-01 6.310701e+02 -4.957026e+00 2.140544e-01 6.309158e+02 -6.964263e+00 -1.678799e-03 1.542788e-01
1.57           -1.192981e+01 2.175032e-01 6.310346e+02 -4.977571e+00 2.193602e-01 6.308825e+02 -6.952237e+00 -1.857022e-03 1.520835e-01
1.58           -1.193174e+01 2.234084e-01 6.311504e+02 -4.991415e+00 2.254690e-01 6.310006e+02 -6.940324e+00 -2.060599e-03 1.498598e-01
1.59           -1.194432e+01 1.736374e-01 6.310755e+02 -5.016141e+00 1.758926e-01 6.309280e+02 -6.928176e+00 -2.255191e-03 1.475950e-01
1.6            -1.193953e+01 1.802841e-01 6.310973e+02 -5.023346e+00 1.827074e-01 6.309520e+02 -6.916179e+00 -2.423316e-03 1.453492e-01
1.61           -1.190271e+01 1.134204e-01 6.310445e+02 -4.997179e+00 1.160710e-01 6.309013e+02 -6.905534e+00 -2.650660e-03 1.432112e-01
1.62           -1.189705e+01 1.092124e-01 6.310101e+02 -5.003176e+00 1.119849e-01 6.308693e+02 -6.893875e+00 -2.772454e-03 1.408343e-01
1.63           -1.194457e+01 1.694955e-01 6.309688e+02 -5.061951e+00 1.722858e-01 6.308304e+02 -6.882621e+00 -2.790318e-03 1.383557e-01
1.64           -1.192411e+01 1.770850e-02 6.307743e+02 -5.052862e+00 2.048742e-02 6.306384e+02 -6.871248e+00 -2.778920e-03 1.359126e-01
1.65           -1.202637e+01 2.362450e-02 6.309709e+02 -5.166174e+00 2.637483e-02 6.308375e+02 -6.860200e+00 -2.750326e-03 1.334087e-01
1.66           -1.196446e+01 1.006895e-01 6.307669e+02 -5.115650e+00 1.033880e-01 6.306359e+02 -6.848814e+00 -2.698448e-03 1.309648e-01
1.67           -1.199768e+01 1.884336e-01 6.304919e+02 -5.159976e+00 1.912004e-01 6.303632e+02 -6.837705e+00 -2.766812e-03 1.286293e-01
1.68           -1.199719e+01 1.619459e-01 6.304680e+02 -5.170738e+00 1.646795e-01 6.303417e+02 -6.826451e+00 -2.733549e-03 1.263698e-01
1.69           -1.201763e+01 1.815383e-01 6.303293e+02 -5.202355e+00 1.843475e-01 6.302051e+02 -6.815274e+00 -2.809276e-03 1.241953e-01
1.7            -1.204323e+01 1.170673e-01 6.304328e+02 -5.238079e+00 1.199831e-01 6.303108e+02 -6.805153e+00 -2.915851e-03 1.220917e-01
1.71           -1.205058e+01 2.288654e-01 6.306190e+02 -5.255429e+00 2.317946e-01 6.304990e+02 -6.795155e+00 -2.929154e-03 1.200182e-01
1.72           -1.205663e+01 1.478577e-01 6.304950e+02 -5.271457e+00 1.508295e-01 6.303771e+02 -6.785169e+00 -2.971828e-03 1.179595e-01
1.73           -1.209274e+01 1.300098e-01 6.302271e+02 -5.317422e+00 1.329804e-01 6.301112e+02 -6.775323e+00 -2.970595e-03 1.158865e-01
1.74           -1.213698e+01 7.248812e-02 6.303679e+02 -5.371309e+00 7.548221e-02 6.302542e+02 -6.765668e+00 -2.994086e-03 1.137324e-01
1.75           -1.213407e+01 1.064186e-01 6.302501e+02 -5.378339e+00 1.094752e-01 6.301386e+02 -6.755730e+00 -3.056567e-03 1.115745e-01
1.76           -1.215452e+01 9.125367e-03 6.304025e+02 -5.408083e+00 1.228055e-02 6.302930e+02 -6.746433e+00 -3.155182e-03 1.094679e-01
1.77           -1.213970e+01 2.116486e-02 6.300809e+02 -5.402655e+00 2.439809e-02 6.299735e+02 -6.737048e+00 -3.233226e-03 1.074285e-01
1.78           -1.219613e+01 1.902295e-01 6.304100e+02 -5.468869e+00 1.934643e-01 6.303048e+02 -6.727263e+00 -3.234883e-03 1.051625e-01
1.79           -1.219466e+01 2.026355e-01 6.303137e+02 -5.477152e+00 2.058541e-01 6.302108e+02 -6.717506e+00 -3.218563e-03 1.029051e-01
1.8            -1.220159e+01 1.771553e-01 6.303539e+02 -5.493968e+00 1.803032e-01 6.302533e+02 -6.707626e+00 -3.147899e-03 1.006115e-01
1.81           -1.219574e+01 8.943924e-02 6.303130e+02 -5.498170e+00 9.253259e-02 6.302147e+02 -6.697574e+00 -3.093349e-03 9.829694e-02
1.82           -1.224642e+01 1.113586e-01 6.302590e+02 -5.557641e+00 1.144896e-01 6.301629e+02 -6.688782e+00 -3.131010e-03 9.615212e-02
1.83           -1.221070e+01 1.040879e-01 6.299265e+02 -5.531557e+00 1.072696e-01 6.298325e+02 -6.679141e+00 -3.181667e-03 9.392368e-02
1.84           -1.223364e+01 1.304647e-01 6.301557e+02 -5.564305e+00 1.337098e-01 6.300641e+02 -6.669334e+00 -3.245120e-03 9.162520e-02
1.85           -1.224390e+01 9.718906e-02 6.299335e+02 -5.584174e+00 1.005505e-01 6.298441e+02 -6.659725e+00 -3.361396e-03 8.946028e-02
1.86           -1.224877e+01 9.462131e-02 6.298910e+02 -5.598773e+00 9.806379e-02 6.298037e+02 -6.649996e+00 -3.442475e-03 8.729198e-02
1.87           -1.225984e+01 1.354802e-01 6.298068e+02 -5.619596e+00 1.389897e-01 6.297216e+02 -6.640243e+00 -3.509554e-03 8.521281e-02
1.88           -1.225776e+01 2.169508e-01 6.298275e+02 -5.627196e+00 2.205507e-01 6.297444e+02 -6.630566e+00 -3.599887e-03 8.309275e-02
1.89           -1.228223e+01 1.636607e-01 6.298796e+02 -5.661324e+00 1.673394e-01 6.297987e+02 -6.620910e+00 -3.678730e-03 8.095232e-02
1.9            -1.232522e+01 9.566141e-02 6.300127e+02 -5.713983e+00 9.945351e-02 6.299340e+02 -6.611240e+00 -3.792098e-03 7.875432e-02
1.91           -1.228864e+01 7.409232e-02 6.298601e+02 -5.687360e+00 7.796082e-02 6.297837e+02 -6.601277e+00 -3.868499e-03 7.640005e-02
1.92           -1.229376e+01 5.942132e-02 6.297983e+02 -5.702340e+00 6.335698e-02 6.297244e+02 -6.591421e+00 -3.935655e-03 7.391849e-02
1.93           -1.229716e+01 1.156538e-02 6.295148e+02 -5.715788e+00 1.557388e-02 6.294434e+02 -6.581368e+00 -4.008503e-03 7.146159e-02
1.94           -1.230278e+01 8.621887e-03 6.294096e+02 -5.731294e+00 1.269921e-02 6.293405e+02 -6.571483e+00 -4.077323e-03 6.907244e-02
1.95           -1.231239e+01 8.689824e-02 6.293405e+02 -5.750800e+00 9.104472e-02 6.292737e+02 -6.561588e+00 -4.146486e-03 6.679849e-02
1.96           -1.231413e+01 7.850792e-03 6.291889e+02 -5.761971e+00 1.201878e-02 6.291242e+02 -6.552155e+00 -4.167986e-03 6.469696e-02
1.97           -1.232870e+01 6.912500e-02 6.293311e+02 -5.786107e+00 7.325765e-02 6.292686e+02 -6.542589e+00 -4.132651e-03 6.252691e-02
1.98           -1.235942e+01 2.376113e-01 6.293024e+02 -5.826460e+00 2.417166e-01 6.292421e+02 -6.532962e+00 -4.105329e-03 6.024538e-02
1.99           -1.235483e+01 2.084953e-01 6.291738e+02 -5.831528e+00 2.125656e-01 6.291158e+02 -6.523301e+00 -4.070302e-03 5.798930e-02
2              -1.238100e+01 2.662807e-01 6.292397e+02 -5.867133e+00 2.703011e-01 6.291839e+02 -6.513869e+00 -4.020429e-03 5.574831e-02
2.01           -1.240604e+01 2.457645e-01 6.293559e+02 -5.901412e+00 2.496904e-01 6.293023e+02 -6.504625e+00 -3.925872e-03 5.358951e-02
2.02           -1.242515e+01 2.144038e-01 6.292955e+02 -5.929616e+00 2.182669e-01 6.292440e+02 -6.495538e+00 -3.863152e-03 5.143040e-02
2.03           -1.246110e+01 1.745666e-01 6.291482e+02 -5.974552e+00 1.783471e-01 6.290989e+02 -6.486550e+00 -3.780463e-03 4.934100e-02
2.04           -1.247156e+01 2.351619e-01 6.290751e+02 -5.993969e+00 2.389263e-01 6.290278e+02 -6.477586e+00 -3.764408e-03 4.727090e-02
2.05           -1.259233e+01 2.413389e-01 6.294262e+02 -6.122619e+00 2.451853e-01 6.293809e+02 -6.469711e+00 -3.846433e-03 4.528039e-02
2.06           -1.255462e+01 1.442591e-01 6.291493e+02 -6.093163e+00 1.481724e-01 6.291060e+02 -6.461454e+00 -3.913250e-03 4.325179e-02
2.07           -1.255949e+01 1.259315e-01 6.292103e+02 -6.106397e+00 1.299344e-01 6.291691e+02 -6.453098e+00 -4.002919e-03 4.127009e-02
2.08           -1.257064e+01 1.170257e-01 6.290532e+02 -6.125965e+00 1.211008e-01 6.290139e+02 -6.444672e+00 -4.075113e-03 3.931258e-02
2.09           -1.254918e+01 1.036978e-01 6.291017e+02 -6.112797e+00 1.078687e-01 6.290642e+02 -6.436378e+00 -4.170954e-03 3.744143e-02
2.1            -1.258726e+01 2.909558e-01 6.295925e+02 -6.158333e+00 2.951005e-01 6.295569e+02 -6.428924e+00 -4.144737e-03 3.561456e-02
2.11           -1.258971e+01 2.677613e-01 6.294939e+02 -6.168497e+00 2.718806e-01 6.294602e+02 -6.421217e+00 -4.119359e-03 3.373968e-02
2.12           -1.259577e+01 2.181797e-01 6.294664e+02 -6.182197e+00 2.222620e-01 6.294345e+02 -6.413577e+00 -4.082331e-03 3.186454e-02
2.13           -1.260205e+01 1.557502e-01 6.293587e+02 -6.196327e+00 1.597652e-01 6.293288e+02 -6.405721e+00 -4.014990e-03 2.992881e-02
2.14           -1.261626e+01 1.862831e-01 6.292384e+02 -6.218374e+00 1.902167e-01 6.292104e+02 -6.397890e+00 -3.933609e-03 2.803242e-02
2.15           -1.262438e+01 1.818773e-01 6.292036e+02 -6.234392e+00 1.857331e-01 6.291775e+02 -6.389985e+00 -3.855839e-03 2.616544e-02
2.16           -1.263365e+01 1.917860e-01 6.290550e+02 -6.251832e+00 1.955841e-01 6.290308e+02 -6.381819e+00 -3.798080e-03 2.426633e-02
2.17           -1.265093e+01 1.259053e-01 6.291164e+02 -6.277205e+00 1.296781e-01 6.290940e+02 -6.373724e+00 -3.772807e-03 2.240293e-02
2.18           -1.265552e+01 1.292205e-01 6.291217e+02 -6.289793e+00 1.329778e-01 6.291011e+02 -6.365725e+00 -3.757305e-03 2.055173e-02
2.19           -1.271202e+01 1.246736e-01 6.292672e+02 -6.353997e+00 1.283520e-01 6.292486e+02 -6.358025e+00 -3.678434e-03 1.868134e-02