# Moment      
# CofR        : (2.929541e+00 0.000000e+00 2.000000e-01)
#
# Time        	total_x total_y total_z	pressure_x pressure_y pressure_z	viscous_x viscous_y viscous_z
0.01           9.761874e+03 -5.195466e+04 -3.250094e+03 9.761964e+03 -5.195770e+04 -3.241728e+03 -8.932354e-02 3.041778e+00 -8.365107e+00
0.02           -1.836025e+02 4.065602e+02 -5.712464e+01 -1.834287e+02 4.034085e+02 -4.928937e+01 -1.738327e-01 3.151694e+00 -7.835279e+00
0.03           -3.838502e+03 4.369148e+03 2.161674e+03 -3.838347e+03 4.366003e+03 2.169462e+03 -1.543483e-01 3.144719e+00 -7.787680e+00
0.04           -1.768784e+03 2.451968e+03 8.651870e+02 -1.768638e+03 2.448825e+03 8.729450e+02 -1.454270e-01 3.143275e+00 -7.757922e+00
0.05           -9.366495e+02 1.642730e+03 2.973472e+02 -9.365074e+02 1.639585e+03 3.050791e+02 -1.421326e-01 3.144624e+00 -7.731918e+00
0.06           -5.687541e+02 1.214162e+03 8.655867e+01 -5.686117e+02 1.211016e+03 9.425961e+01 -1.423680e-01 3.146261e+00 -7.700942e+00
0.07           -4.037335e+02 1.006719e+03 1.054320e+00 -4.035884e+02 1.003574e+03 8.711792e+00 -1.450951e-01 3.145347e+00 -7.657472e+00
0.08           -3.245186e+02 8.904087e+02 -3.683113e+01 -3.243712e+02 8.872749e+02 -2.924127e+01 -1.473951e-01 3.133807e+00 -7.589862e+00
0.09           -2.838117e+02 8.213729e+02 -5.137547e+01 -2.836629e+02 8.182648e+02 -4.388533e+01 -1.488285e-01 3.108085e+00 -7.490138e+00
0.1            -2.658142e+02 7.994299e+02 -6.045715e+01 -2.656643e+02 7.963580e+02 -5.309028e+01 -1.498978e-01 3.071850e+00 -7.366871e+00
0.11           -2.622520e+02 8.081630e+02 -5.403068e+01 -2.621009e+02 8.051314e+02 -4.679505e+01 -1.510991e-01 3.031568e+00 -7.235637e+00
0.12           -2.666568e+02 8.428176e+02 -5.903446e+01 -2.665042e+02 8.398276e+02 -5.193258e+01 -1.525606e-01 2.989992e+00 -7.101879e+00
0.13           -2.731185e+02 8.743047e+02 -5.538965e+01 -2.729646e+02 8.713546e+02 -4.841407e+01 -1.539151e-01 2.950117e+00 -6.975582e+00
0.14           -2.797544e+02 9.036451e+02 -4.918828e+01 -2.795995e+02 9.007332e+02 -4.233062e+01 -1.549494e-01 2.911920e+00 -6.857657e+00
0.15           -2.801553e+02 9.154784e+02 -4.532635e+01 -2.799993e+02 9.126064e+02 -3.859189e+01 -1.560540e-01 2.871965e+00 -6.734458e+00
0.16           -2.831186e+02 9.304653e+02 -4.427390e+01 -2.829615e+02 9.276312e+02 -3.765237e+01 -1.571319e-01 2.834162e+00 -6.621528e+00
0.17           -2.872172e+02 9.531167e+02 -4.460609e+01 -2.870589e+02 9.503216e+02 -3.810249e+01 -1.582738e-01 2.795098e+00 -6.503593e+00
0.18           -2.902746e+02 9.689442e+02 -4.103611e+01 -2.901153e+02 9.661876e+02 -3.464744e+01 -1.593089e-01 2.756679e+00 -6.388665e+00
0.19           -2.916849e+02 9.783863e+02 -3.593951e+01 -2.915245e+02 9.756688e+02 -2.966570e+01 -1.604340e-01 2.717581e+00 -6.273809e+00
0.2            -2.981135e+02 1.003479e+03 -3.564909e+01 -2.979527e+02 1.000801e+03 -2.948612e+01 -1.607888e-01 2.678345e+00 -6.162969e+00
0.21           -2.917213e+02 9.785123e+02 -1.887083e+01 -2.915594e+02 9.758637e+02 -1.279345e+01 -1.618868e-01 2.648610e+00 -6.077385e+00
0.22           -2.952792e+02 9.964715e+02 -2.032747e+01 -2.951165e+02 9.938570e+02 -1.434468e+01 -1.626429e-01 2.614497e+00 -5.982789e+00
0.23           -2.947081e+02 9.988470e+02 -1.886908e+01 -2.945445e+02 9.962665e+02 -1.298021e+01 -1.636021e-01 2.580511e+00 -5.888869e+00
0.24           -2.978854e+02 1.012047e+03 -1.749931e+01 -2.977213e+02 1.009501e+03 -1.170267e+01 -1.641273e-01 2.546087e+00 -5.796636e+00
0.25           -2.989415e+02 1.018731e+03 -1.533460e+01 -2.987768e+02 1.016217e+03 -9.622073e+00 -1.646919e-01 2.513725e+00 -5.712525e+00
0.26           -3.007048e+02 1.028181e+03 -1.512077e+01 -3.005398e+02 1.025703e+03 -9.499070e+00 -1.650167e-01 2.478321e+00 -5.621704e+00
0.27           -3.005266e+02 1.030053e+03 -1.522224e+01 -3.003612e+02 1.027609e+03 -9.690551e+00 -1.654063e-01 2.443833e+00 -5.531691e+00
0.28           -3.023848e+02 1.038727e+03 -1.311812e+01 -3.022190e+02 1.036318e+03 -7.672918e+00 -1.657762e-01 2.409954e+00 -5.445201e+00
0.29           -3.028065e+02 1.043025e+03 -1.573753e+01 -3.026402e+02 1.040645e+03 -1.036991e+01 -1.662349e-01 2.380255e+00 -5.367622e+00
0.3            -3.027269e+02 1.043398e+03 -1.478397e+01 -3.025600e+02 1.041043e+03 -9.483084e+00 -1.668949e-01 2.354704e+00 -5.300891e+00
0.31           -3.034356e+02 1.047429e+03 -1.412931e+01 -3.032681e+02 1.045099e+03 -8.894003e+00 -1.674914e-01 2.329364e+00 -5.235309e+00
0.32           -3.047459e+02 1.053594e+03 -1.433587e+01 -3.045778e+02 1.051289e+03 -9.164830e+00 -1.680834e-01 2.304337e+00 -5.171043e+00
0.33           -3.039990e+02 1.051801e+03 -1.283674e+01 -3.038303e+02 1.049519e+03 -7.724445e+00 -1.686713e-01 2.281120e+00 -5.112296e+00
0.34           -3.040313e+02 1.053233e+03 -1.189364e+01 -3.038620e+02 1.050976e+03 -6.841527e+00 -1.693538e-01 2.257797e+00 -5.052115e+00
0.35           -3.043651e+02 1.054719e+03 -1.275295e+01 -3.041953e+02 1.052481e+03 -7.751498e+00 -1.698082e-01 2.237775e+00 -5.001449e+00
0.36           -3.036237e+02 1.054364e+03 -1.543054e+01 -3.034528e+02 1.052142e+03 -1.047578e+01 -1.708405e-01 2.221653e+00 -4.954754e+00
0.37           -3.061245e+02 1.063505e+03 -1.303618e+01 -3.059534e+02 1.061301e+03 -8.127584e+00 -1.711548e-01 2.203352e+00 -4.908591e+00
0.38           -3.045644e+02 1.059495e+03 -1.359406e+01 -3.043923e+02 1.057309e+03 -8.732963e+00 -1.721614e-01 2.186229e+00 -4.861095e+00
0.39           -3.061277e+02 1.065127e+03 -1.181133e+01 -3.059552e+02 1.062960e+03 -6.997503e+00 -1.724857e-01 2.167062e+00 -4.813830e+00
0.4            -3.055815e+02 1.064634e+03 -1.260319e+01 -3.054080e+02 1.062484e+03 -7.835187e+00 -1.735004e-01 2.149981e+00 -4.768004e+00
0.41           -3.066866e+02 1.068371e+03 -1.094037e+01 -3.065126e+02 1.066238e+03 -6.213620e+00 -1.740056e-01 2.133252e+00 -4.726754e+00
0.42           -3.052991e+02 1.064541e+03 -9.224129e+00 -3.051237e+02 1.062421e+03 -4.531288e+00 -1.754161e-01 2.120667e+00 -4.692841e+00
0.43           -3.049563e+02 1.063638e+03 -9.378566e+00 -3.047798e+02 1.061528e+03 -4.716071e+00 -1.764855e-01 2.109624e+00 -4.662495e+00
0.44           -3.059246e+02 1.067721e+03 -8.966124e+00 -3.057461e+02 1.065623e+03 -4.334113e+00 -1.784679e-01 2.098661e+00 -4.632010e+00
0.45           -3.070371e+02 1.072080e+03 -8.706249e+00 -3.068572e+02 1.069993e+03 -4.102721e+00 -1.799399e-01 2.087727e+00 -4.603528e+00
0.46           -3.054063e+02 1.066606e+03 -9.099085e+00 -3.052234e+02 1.064525e+03 -4.520907e+00 -1.829157e-01 2.081084e+00 -4.578178e+00
0.47           -3.064267e+02 1.070908e+03 -7.655597e+00 -3.062417e+02 1.068837e+03 -3.104700e+00 -1.849840e-01 2.071403e+00 -4.550897e+00
0.48           -3.068916e+02 1.073442e+03 -8.047779e+00 -3.067030e+02 1.071378e+03 -3.521753e+00 -1.886141e-01 2.064271e+00 -4.526026e+00
0.49           -3.059098e+02 1.069428e+03 -9.140332e+00 -3.057183e+02 1.067369e+03 -4.635167e+00 -1.915017e-01 2.059558e+00 -4.505165e+00
0.5            -3.070300e+02 1.074245e+03 -8.630227e+00 -3.068339e+02 1.072190e+03 -4.144489e+00 -1.960528e-01 2.055685e+00 -4.485738e+00
0.51           -3.071378e+02 1.074923e+03 -7.684464e+00 -3.069386e+02 1.072874e+03 -3.220516e+00 -1.992129e-01 2.048895e+00 -4.463948e+00
0.52           -3.074227e+02 1.076895e+03 -7.384918e+00 -3.072189e+02 1.074850e+03 -2.937238e+00 -2.037601e-01 2.045171e+00 -4.447679e+00
0.53           -3.071197e+02 1.075699e+03 -7.662845e+00 -3.069120e+02 1.073659e+03 -3.235415e+00 -2.077556e-01 2.040041e+00 -4.427431e+00
0.54           -3.071238e+02 1.076241e+03 -7.693406e+00 -3.069113e+02 1.074204e+03 -3.281063e+00 -2.124871e-01 2.037591e+00 -4.412342e+00
0.55           -3.077408e+02 1.078866e+03 -6.923886e+00 -3.075240e+02 1.076833e+03 -2.528859e+00 -2.167625e-01 2.033156e+00 -4.395027e+00
0.56           -3.069195e+02 1.076078e+03 -8.110874e+00 -3.066975e+02 1.074045e+03 -3.727464e+00 -2.220058e-01 2.033777e+00 -4.383410e+00
0.57           -3.080236e+02 1.079952e+03 -7.245400e+00 -3.077975e+02 1.077921e+03 -2.876577e+00 -2.261265e-01 2.030713e+00 -4.368823e+00
0.58           -3.069860e+02 1.077046e+03 -7.334318e+00 -3.067556e+02 1.075017e+03 -2.978593e+00 -2.303640e-01 2.028660e+00 -4.355725e+00
0.59           -3.074720e+02 1.078893e+03 -7.074825e+00 -3.072385e+02 1.076868e+03 -2.731889e+00 -2.335414e-01 2.025376e+00 -4.342936e+00
0.6            -3.069351e+02 1.077249e+03 -6.933998e+00 -3.066974e+02 1.075222e+03 -2.597141e+00 -2.377474e-01 2.026621e+00 -4.336857e+00
0.61           -3.072193e+02 1.078242e+03 -6.781312e+00 -3.069788e+02 1.076216e+03 -2.451743e+00 -2.405177e-01 2.025387e+00 -4.329569e+00
0.62           -3.073375e+02 1.079173e+03 -6.424516e+00 -3.070936e+02 1.077148e+03 -2.099830e+00 -2.438751e-01 2.025569e+00 -4.324686e+00
0.63           -3.069241e+02 1.077403e+03 -7.299963e+00 -3.066777e+02 1.075379e+03 -2.981631e+00 -2.463372e-01 2.024471e+00 -4.318333e+00
0.64           -3.069708e+02 1.077988e+03 -7.078066e+00 -3.067214e+02 1.075964e+03 -2.765184e+00 -2.494772e-01 2.024242e+00 -4.312882e+00
0.65           -3.071753e+02 1.078545e+03 -7.054293e+00 -3.069235e+02 1.076525e+03 -2.752150e+00 -2.517588e-01 2.020641e+00 -4.302143e+00
0.66           -3.073142e+02 1.079643e+03 -7.775932e+00 -3.070594e+02 1.077625e+03 -3.482818e+00 -2.548580e-01 2.018526e+00 -4.293114e+00
0.67           -3.076262e+02 1.081488e+03 -7.582228e+00 -3.073689e+02 1.079473e+03 -3.300944e+00 -2.573298e-01 2.014662e+00 -4.281284e+00
0.68           -3.076205e+02 1.081311e+03 -8.531554e+00 -3.073601e+02 1.079297e+03 -4.258226e+00 -2.604191e-01 2.014028e+00 -4.273328e+00
0.69           -3.075840e+02 1.081057e+03 -6.640508e+00 -3.073216e+02 1.079045e+03 -2.374044e+00 -2.623227e-01 2.012214e+00 -4.266464e+00
0.7            -3.072131e+02 1.079604e+03 -7.554918e+00 -3.069486e+02 1.077594e+03 -3.297974e+00 -2.644982e-01 2.010304e+00 -4.256944e+00
0.71           -3.077779e+02 1.081677e+03 -7.540059e+00 -3.075140e+02 1.079675e+03 -3.297091e+00 -2.638572e-01 2.002266e+00 -4.242968e+00
0.72           -3.074546e+02 1.081061e+03 -7.210940e+00 -3.071910e+02 1.079065e+03 -2.978744e+00 -2.635891e-01 1.995715e+00 -4.232196e+00
0.73           -3.076923e+02 1.081903e+03 -6.849024e+00 -3.074299e+02 1.079916e+03 -2.629913e+00 -2.624031e-01 1.986659e+00 -4.219111e+00
0.74           -3.076081e+02 1.081611e+03 -7.282294e+00 -3.073468e+02 1.079633e+03 -3.076792e+00 -2.613169e-01 1.977489e+00 -4.205502e+00
0.75           -3.075147e+02 1.081199e+03 -7.086230e+00 -3.072552e+02 1.079230e+03 -2.892122e+00 -2.594802e-01 1.969014e+00 -4.194108e+00
0.76           -3.074831e+02 1.081032e+03 -7.158713e+00 -3.072255e+02 1.079073e+03 -2.978195e+00 -2.576107e-01 1.959317e+00 -4.180518e+00
0.77           -3.075457e+02 1.081280e+03 -7.232101e+00 -3.072905e+02 1.079331e+03 -3.064517e+00 -2.551801e-01 1.948917e+00 -4.167584e+00
0.78           -3.077748e+02 1.082260e+03 -7.391269e+00 -3.075220e+02 1.080321e+03 -3.237965e+00 -2.528590e-01 1.938326e+00 -4.153304e+00
0.79           -3.077639e+02 1.082362e+03 -7.069987e+00 -3.075131e+02 1.080434e+03 -2.930077e+00 -2.507686e-01 1.928380e+00 -4.139910e+00
0.8            -3.076450e+02 1.081972e+03 -7.377258e+00 -3.073966e+02 1.080053e+03 -3.251470e+00 -2.483873e-01 1.918399e+00 -4.125788e+00
0.81           -3.076751e+02 1.082150e+03 -7.497481e+00 -3.074291e+02 1.080241e+03 -3.384600e+00 -2.459223e-01 1.908618e+00 -4.112882e+00
0.82           -3.079739e+02 1.083284e+03 -6.985452e+00 -3.077310e+02 1.081386e+03 -2.887563e+00 -2.429439e-01 1.897361e+00 -4.097888e+00
0.83           -3.079737e+02 1.083258e+03 -6.986355e+00 -3.077340e+02 1.081373e+03 -2.902839e+00 -2.396297e-01 1.885582e+00 -4.083517e+00
0.84           -3.077626e+02 1.082470e+03 -7.010979e+00 -3.075265e+02 1.080596e+03 -2.941852e+00 -2.361142e-01 1.873676e+00 -4.069127e+00
0.85           -3.077420e+02 1.082682e+03 -6.955613e+00 -3.075100e+02 1.080821e+03 -2.900659e+00 -2.320641e-01 1.860884e+00 -4.054954e+00
0.86           -3.076768e+02 1.082643e+03 -7.308849e+00 -3.074493e+02 1.080796e+03 -3.270136e+00 -2.274630e-01 1.847016e+00 -4.038713e+00
0.87           -3.077578e+02 1.082939e+03 -7.024538e+00 -3.075353e+02 1.081107e+03 -3.001536e+00 -2.225465e-01 1.832828e+00 -4.023002e+00
0.88           -3.075485e+02 1.082121e+03 -7.101150e+00 -3.073304e+02 1.080301e+03 -3.092557e+00 -2.180751e-01 1.819760e+00 -4.008592e+00
0.89           -3.077411e+02 1.082790e+03 -6.981446e+00 -3.075273e+02 1.080983e+03 -2.987171e+00 -2.137776e-01 1.807185e+00 -3.994275e+00
0.9            -3.077245e+02 1.082950e+03 -7.234055e+00 -3.075148e+02 1.081154e+03 -3.252804e+00 -2.097030e-01 1.795284e+00 -3.981251e+00
0.91           -3.079119e+02 1.083617e+03 -7.052529e+00 -3.077062e+02 1.081834e+03 -3.085366e+00 -2.056626e-01 1.783004e+00 -3.967164e+00
0.92           -3.077406e+02 1.083229e+03 -7.208402e+00 -3.075386e+02 1.081456e+03 -3.253334e+00 -2.019718e-01 1.772285e+00 -3.955068e+00
0.93           -3.074689e+02 1.082023e+03 -6.873492e+00 -3.072705e+02 1.080261e+03 -2.930049e+00 -1.983811e-01 1.761928e+00 -3.943443e+00
0.94           -3.074553e+02 1.082234e+03 -6.983636e+00 -3.072603e+02 1.080482e+03 -3.052207e+00 -1.950503e-01 1.751909e+00 -3.931429e+00
0.95           -3.075037e+02 1.082454e+03 -7.021899e+00 -3.073121e+02 1.080712e+03 -3.102687e+00 -1.916127e-01 1.741730e+00 -3.919213e+00
0.96           -3.075068e+02 1.082428e+03 -6.995346e+00 -3.073186e+02 1.080696e+03 -3.087897e+00 -1.882178e-01 1.731560e+00 -3.907448e+00
0.97           -3.073101e+02 1.081691e+03 -6.771913e+00 -3.071253e+02 1.079970e+03 -2.876504e+00 -1.847841e-01 1.721366e+00 -3.895410e+00
0.98           -3.075580e+02 1.082569e+03 -6.990279e+00 -3.073766e+02 1.080858e+03 -3.107517e+00 -1.814081e-01 1.711234e+00 -3.882762e+00
0.99           -3.071562e+02 1.081043e+03 -6.657687e+00 -3.069784e+02 1.079343e+03 -2.787310e+00 -1.777435e-01 1.700721e+00 -3.870377e+00
1              -3.071180e+02 1.080839e+03 -6.854177e+00 -3.069437e+02 1.079148e+03 -2.995241e+00 -1.743377e-01 1.690864e+00 -3.858936e+00
1.01           -3.072267e+02 1.081317e+03 -6.696246e+00 -3.070557e+02 1.079636e+03 -2.848727e+00 -1.710176e-01 1.680978e+00 -3.847519e+00
1.02           -3.072420e+02 1.081325e+03 -6.852182e+00 -3.070739e+02 1.079653e+03 -3.015665e+00 -1.680591e-01 1.671797e+00 -3.836517e+00
1.03           -3.072588e+02 1.081326e+03 -6.814257e+00 -3.070936e+02 1.079663e+03 -2.988824e+00 -1.651755e-01 1.662663e+00 -3.825433e+00
1.04           -3.071557e+02 1.080941e+03 -6.893440e+00 -3.069935e+02 1.079288e+03 -3.079906e+00 -1.621775e-01 1.653146e+00 -3.813533e+00
1.05           -3.071394e+02 1.080821e+03 -6.901609e+00 -3.069802e+02 1.079177e+03 -3.099766e+00 -1.592378e-01 1.643922e+00 -3.801843e+00
1.06           -3.072323e+02 1.081116e+03 -6.535357e+00 -3.070758e+02 1.079481e+03 -2.745123e+00 -1.564997e-01 1.634842e+00 -3.790233e+00
1.07           -3.074110e+02 1.081750e+03 -6.804995e+00 -3.072571e+02 1.080124e+03 -3.025951e+00 -1.539117e-01 1.626115e+00 -3.779044e+00
1.08           -3.072879e+02 1.081212e+03 -6.473689e+00 -3.071364e+02 1.079595e+03 -2.705134e+00 -1.514252e-01 1.617697e+00 -3.768555e+00
1.09           -3.073875e+02 1.081622e+03 -6.918117e+00 -3.072385e+02 1.080013e+03 -3.160783e+00 -1.490528e-01 1.609366e+00 -3.757334e+00
1.1            -3.070406e+02 1.080297e+03 -6.524545e+00 -3.068938e+02 1.078695e+03 -2.777488e+00 -1.467611e-01 1.601575e+00 -3.747057e+00
1.11           -3.071989e+02 1.080978e+03 -6.741286e+00 -3.070545e+02 1.079385e+03 -3.005678e+00 -1.444068e-01 1.593357e+00 -3.735608e+00
1.12           -3.071147e+02 1.080624e+03 -6.582464e+00 -3.069728e+02 1.079040e+03 -2.858214e+00 -1.418607e-01 1.584799e+00 -3.724250e+00
1.13           -3.070158e+02 1.080264e+03 -6.647834e+00 -3.068764e+02 1.078687e+03 -2.934548e+00 -1.394301e-01 1.576701e+00 -3.713286e+00
1.14           -3.070635e+02 1.080528e+03 -6.528890e+00 -3.069264e+02 1.078959e+03 -2.826218e+00 -1.371132e-01 1.568887e+00 -3.702672e+00
1.15           -3.070614e+02 1.080502e+03 -6.599093e+00 -3.069265e+02 1.078941e+03 -2.907088e+00 -1.349579e-01 1.561361e+00 -3.692005e+00
1.16           -3.071279e+02 1.080886e+03 -6.721135e+00 -3.069949e+02 1.079331e+03 -3.038646e+00 -1.329612e-01 1.554427e+00 -3.682489e+00
1.17           -3.069990e+02 1.080117e+03 -6.425596e+00 -3.068679e+02 1.078569e+03 -2.752869e+00 -1.310289e-01 1.547503e+00 -3.672727e+00
1.18           -3.070681e+02 1.080337e+03 -6.619067e+00 -3.069390e+02 1.078797e+03 -2.956625e+00 -1.291451e-01 1.540473e+00 -3.662442e+00
1.19           -3.069511e+02 1.079725e+03 -6.529176e+00 -3.068237e+02 1.078191e+03 -2.876049e+00 -1.273419e-01 1.533961e+00 -3.653127e+00
1.2            -3.071734e+02 1.080777e+03 -6.586782e+00 -3.070480e+02 1.079249e+03 -2.942551e+00 -1.254414e-01 1.527280e+00 -3.644230e+00
1.21           -3.072317e+02 1.080910e+03 -6.605569e+00 -3.071083e+02 1.079390e+03 -2.970938e+00 -1.233948e-01 1.520025e+00 -3.634630e+00
1.22           -3.071381e+02 1.080444e+03 -6.524271e+00 -3.070167e+02 1.078931e+03 -2.899196e+00 -1.213670e-01 1.512913e+00 -3.625074e+00
1.23           -3.070894e+02 1.080168e+03 -6.745010e+00 -3.069700e+02 1.078662e+03 -3.128409e+00 -1.193925e-01 1.506359e+00 -3.616601e+00
1.24           -3.068722e+02 1.079501e+03 -6.751271e+00 -3.067548e+02 1.078001e+03 -3.143960e+00 -1.174012e-01 1.499589e+00 -3.607311e+00
1.25           -3.067900e+02 1.079222e+03 -6.663082e+00 -3.066745e+02 1.077729e+03 -3.064763e+00 -1.155262e-01 1.493097e+00 -3.598319e+00
1.26           -3.069181e+02 1.079571e+03 -6.700065e+00 -3.068045e+02 1.078084e+03 -3.110341e+00 -1.136573e-01 1.486669e+00 -3.589724e+00
1.27           -3.067947e+02 1.079016e+03 -6.945196e+00 -3.066828e+02 1.077536e+03 -3.364407e+00 -1.118991e-01 1.480422e+00 -3.580789e+00
1.28           -3.069718e+02 1.079581e+03 -6.693867e+00 -3.068616e+02 1.078107e+03 -3.121472e+00 -1.102329e-01 1.474367e+00 -3.572395e+00
1.29           -3.068021e+02 1.078949e+03 -6.560820e+00 -3.066936e+02 1.077481e+03 -2.997116e+00 -1.085483e-01 1.468070e+00 -3.563704e+00
1.3            -3.069051e+02 1.079279e+03 -6.862895e+00 -3.067982e+02 1.077817e+03 -3.308099e+00 -1.068446e-01 1.461866e+00 -3.554796e+00
1.31           -3.069940e+02 1.079593e+03 -6.650682e+00 -3.068889e+02 1.078137e+03 -3.104750e+00 -1.051212e-01 1.455595e+00 -3.545932e+00
1.32           -3.068604e+02 1.079028e+03 -6.787004e+00 -3.067568e+02 1.077579e+03 -3.248935e+00 -1.035613e-01 1.449916e+00 -3.538069e+00
1.33           -3.067626e+02 1.078810e+03 -6.736073e+00 -3.066606e+02 1.077366e+03 -3.206629e+00 -1.020278e-01 1.444103e+00 -3.529444e+00
1.34           -3.067373e+02 1.078717e+03 -6.828255e+00 -3.066368e+02 1.077279e+03 -3.307451e+00 -1.005154e-01 1.438305e+00 -3.520804e+00
1.35           -3.067716e+02 1.078525e+03 -6.745404e+00 -3.066726e+02 1.077092e+03 -3.231925e+00 -9.898424e-02 1.432895e+00 -3.513478e+00
1.36           -3.068350e+02 1.078885e+03 -6.750296e+00 -3.067375e+02 1.077457e+03 -3.244022e+00 -9.756558e-02 1.427679e+00 -3.506274e+00
1.37           -3.068243e+02 1.078893e+03 -6.854907e+00 -3.067281e+02 1.077470e+03 -3.355935e+00 -9.623771e-02 1.422553e+00 -3.498972e+00
1.38           -3.066962e+02 1.078435e+03 -6.665929e+00 -3.066012e+02 1.077017e+03 -3.173813e+00 -9.499874e-02 1.417731e+00 -3.492116e+00
1.39           -3.066482e+02 1.078288e+03 -6.685796e+00 -3.065544e+02 1.076875e+03 -3.200665e+00 -9.380235e-02 1.412941e+00 -3.485132e+00
1.4            -3.066155e+02 1.078163e+03 -6.800792e+00 -3.065228e+02 1.076755e+03 -3.322724e+00 -9.266089e-02 1.408344e+00 -3.478068e+00
1.41           -3.068412e+02 1.078865e+03 -6.731302e+00 -3.067497e+02 1.077461e+03 -3.259690e+00 -9.151851e-02 1.403711e+00 -3.471611e+00
1.42           -3.067423e+02 1.078427e+03 -6.693279e+00 -3.066519e+02 1.077028e+03 -3.228331e+00 -9.039082e-02 1.399062e+00 -3.464948e+00
1.43           -3.067067e+02 1.078309e+03 -6.661550e+00 -3.066175e+02 1.076915e+03 -3.203055e+00 -8.927249e-02 1.394479e+00 -3.458495e+00
1.44           -3.065651e+02 1.077596e+03 -6.433980e+00 -3.064769e+02 1.076206e+03 -2.981744e+00 -8.819287e-02 1.390027e+00 -3.452235e+00
1.45           -3.066047e+02 1.077760e+03 -6.638806e+00 -3.065176e+02 1.076375e+03 -3.193018e+00 -8.710691e-02 1.385564e+00 -3.445788e+00
1.46           -3.065297e+02 1.077415e+03 -6.620362e+00 -3.064437e+02 1.076034e+03 -3.180958e+00 -8.595936e-02 1.381031e+00 -3.439405e+00
1.47           -3.066017e+02 1.077558e+03 -6.752857e+00 -3.065169e+02 1.076182e+03 -3.320010e+00 -8.475896e-02 1.376357e+00 -3.432847e+00
1.48           -3.066251e+02 1.077571e+03 -6.855414e+00 -3.065415e+02 1.076199e+03 -3.428666e+00 -8.356001e-02 1.371969e+00 -3.426748e+00
1.49           -3.065739e+02 1.077402e+03 -6.824550e+00 -3.064915e+02 1.076035e+03 -3.403964e+00 -8.238309e-02 1.367543e+00 -3.420586e+00
1.5            -3.065234e+02 1.077189e+03 -6.840112e+00 -3.064421e+02 1.075825e+03 -3.425433e+00 -8.126318e-02 1.363306e+00 -3.414679e+00
1.51           -3.064634e+02 1.076844e+03 -6.754838e+00 -3.063832e+02 1.075484e+03 -3.345993e+00 -8.019187e-02 1.359180e+00 -3.408845e+00
1.52           -3.063402e+02 1.076378e+03 -6.641150e+00 -3.062610e+02 1.075024e+03 -3.238313e+00 -7.910838e-02 1.354917e+00 -3.402837e+00
1.53           -3.062757e+02 1.076143e+03 -6.654303e+00 -3.061977e+02 1.074792e+03 -3.257529e+00 -7.805075e-02 1.350695e+00 -3.396774e+00
1.54           -3.064138e+02 1.076447e+03 -6.730396e+00 -3.063369e+02 1.075101e+03 -3.339786e+00 -7.695670e-02 1.346358e+00 -3.390610e+00
1.55           -3.063578e+02 1.076190e+03 -6.647830e+00 -3.062819e+02 1.074848e+03 -3.263427e+00 -7.590502e-02 1.342110e+00 -3.384403e+00
1.56           -3.063556e+02 1.076108e+03 -6.626429e+00 -3.062807e+02 1.074770e+03 -3.248016e+00 -7.485923e-02 1.337923e+00 -3.378413e+00
1.57           -3.063370e+02 1.076002e+03 -6.640315e+00 -3.062632e+02 1.074668e+03 -3.267968e+00 -7.384101e-02 1.333768e+00 -3.372347e+00
1.58           -3.063924e+02 1.076196e+03 -6.618833e+00 -3.063196e+02 1.074866e+03 -3.252491e+00 -7.282136e-02 1.329620e+00 -3.366342e+00
1.59           -3.063599e+02 1.076017e+03 -6.570617e+00 -3.062881e+02 1.074692e+03 -3.210423e+00 -7.178418e-02 1.325394e+00 -3.360194e+00
1.6            -3.063690e+02 1.076027e+03 -6.610417e+00 -3.062982e+02 1.074706e+03 -3.256240e+00 -7.076171e-02 1.321246e+00 -3.354177e+00
1.61           -3.063448e+02 1.075992e+03 -6.390443e+00 -3.062750e+02 1.074674e+03 -3.041717e+00 -6.979019e-02 1.317460e+00 -3.348726e+00
1.62           -3.063288e+02 1.075922e+03 -6.419087e+00 -3.062601e+02 1.074609e+03 -3.076267e+00 -6.868113e-02 1.313162e+00 -3.342819e+00
1.63           -3.063053e+02 1.075656e+03 -6.547113e+00 -3.062378e+02 1.074347e+03 -3.209742e+00 -6.747072e-02 1.308814e+00 -3.337372e+00
1.64           -3.062216e+02 1.075431e+03 -6.342701e+00 -3.061553e+02 1.074127e+03 -3.010845e+00 -6.628713e-02 1.304445e+00 -3.331856e+00
1.65           -3.063179e+02 1.075374e+03 -6.297136e+00 -3.062529e+02 1.074074e+03 -2.970513e+00 -6.504982e-02 1.300106e+00 -3.326624e+00
1.66           -3.062117e+02 1.075287e+03 -6.475443e+00 -3.061478e+02 1.073992e+03 -3.154339e+00 -6.384694e-02 1.295717e+00 -3.321105e+00
1.67           -3.060716e+02 1.074671e+03 -6.676279e+00 -3.060089e+02 1.073380e+03 -3.360649e+00 -6.270262e-02 1.291531e+00 -3.315631e+00
1.68           -3.060636e+02 1.074662e+03 -6.575114e+00 -3.060020e+02 1.073375e+03 -3.264924e+00 -6.158999e-02 1.287406e+00 -3.310191e+00
1.69           -3.059921e+02 1.074379e+03 -6.696079e+00 -3.059315e+02 1.073096e+03 -3.391411e+00 -6.053552e-02 1.283395e+00 -3.304668e+00
1.7            -3.060495e+02 1.074472e+03 -6.621847e+00 -3.059900e+02 1.073193e+03 -3.322371e+00 -5.953331e-02 1.279692e+00 -3.299476e+00
1.71           -3.061359e+02 1.074767e+03 -6.811436e+00 -3.060773e+02 1.073491e+03 -3.516817e+00 -5.852663e-02 1.275995e+00 -3.294619e+00
1.72           -3.060808e+02 1.074525e+03 -6.649697e+00 -3.060232e+02 1.073253e+03 -3.360005e+00 -5.752345e-02 1.272290e+00 -3.289692e+00
1.73           -3.059511e+02 1.073906e+03 -6.602545e+00 -3.058946e+02 1.072637e+03 -3.317554e+00 -5.651742e-02 1.268604e+00 -3.284991e+00
1.74           -3.060232e+02 1.073978e+03 -6.509938e+00 -3.059677e+02 1.072714e+03 -3.229542e+00 -5.550130e-02 1.264820e+00 -3.280396e+00
1.75           -3.059646e+02 1.073802e+03 -6.533619e+00 -3.059102e+02 1.072541e+03 -3.257992e+00 -5.448706e-02 1.261000e+00 -3.275627e+00
1.76           -3.060436e+02 1.074001e+03 -6.389041e+00 -3.059901e+02 1.072744e+03 -3.117996e+00 -5.351352e-02 1.257340e+00 -3.271045e+00
1.77           -3.058871e+02 1.073510e+03 -6.390175e+00 -3.058345e+02 1.072256e+03 -3.123695e+00 -5.255963e-02 1.253712e+00 -3.266480e+00
1.78           -3.060346e+02 1.073868e+03 -6.734243e+00 -3.059832e+02 1.072618e+03 -3.472482e+00 -5.145889e-02 1.249778e+00 -3.261761e+00
1.79           -3.059859e+02 1.073734e+03 -6.732478e+00 -3.059356e+02 1.072488e+03 -3.475431e+00 -5.034062e-02 1.245845e+00 -3.257047e+00
1.8            -3.060048e+02 1.073786e+03 -6.746172e+00 -3.059556e+02 1.072544e+03 -3.493831e+00 -4.919629e-02 1.241877e+00 -3.252342e+00
1.81           -3.059908e+02 1.073712e+03 -6.583350e+00 -3.059427e+02 1.072474e+03 -3.335788e+00 -4.804044e-02 1.237850e+00 -3.247561e+00
1.82           -3.059620e+02 1.073439e+03 -6.743985e+00 -3.059150e+02 1.072205e+03 -3.500826e+00 -4.699722e-02 1.234289e+00 -3.243159e+00
1.83           -3.058038e+02 1.072977e+03 -6.598432e+00 -3.057579e+02 1.071746e+03 -3.360003e+00 -4.591423e-02 1.230458e+00 -3.238429e+00
1.84           -3.059164e+02 1.073293e+03 -6.614825e+00 -3.058716e+02 1.072066e+03 -3.381283e+00 -4.479656e-02 1.226591e+00 -3.233542e+00
1.85           -3.058108e+02 1.072924e+03 -6.585494e+00 -3.057670e+02 1.071701e+03 -3.356773e+00 -4.376774e-02 1.222897e+00 -3.228720e+00
1.86           -3.057880e+02 1.072797e+03 -6.617364e+00 -3.057453e+02 1.071578e+03 -3.393487e+00 -4.271986e-02 1.219164e+00 -3.223877e+00
1.87           -3.057452e+02 1.072633e+03 -6.681606e+00 -3.057035e+02 1.071417e+03 -3.462551e+00 -4.171639e-02 1.215526e+00 -3.219055e+00
1.88           -3.057494e+02 1.072663e+03 -6.843300e+00 -3.057087e+02 1.071451e+03 -3.629044e+00 -4.070024e-02 1.211823e+00 -3.214256e+00
1.89           -3.057765e+02 1.072651e+03 -6.732267e+00 -3.057368e+02 1.071443e+03 -3.522790e+00 -3.967101e-02 1.208081e+00 -3.209478e+00
1.9            -3.058440e+02 1.072719e+03 -6.660799e+00 -3.058053e+02 1.071515e+03 -3.456137e+00 -3.863682e-02 1.204223e+00 -3.204662e+00
1.91           -3.057695e+02 1.072568e+03 -6.703544e+00 -3.057320e+02 1.071367e+03 -3.503785e+00 -3.751794e-02 1.200212e+00 -3.199759e+00
1.92           -3.057453e+02 1.072394e+03 -6.663525e+00 -3.057090e+02 1.071198e+03 -3.468557e+00 -3.634533e-02 1.196107e+00 -3.194968e+00
1.93           -3.056152e+02 1.071919e+03 -6.634499e+00 -3.055800e+02 1.070727e+03 -3.444397e+00 -3.519312e-02 1.192023e+00 -3.190102e+00
1.94           -3.055645e+02 1.071721e+03 -6.614229e+00 -3.055304e+02 1.070533e+03 -3.428894e+00 -3.408027e-02 1.188023e+00 -3.185335e+00
1.95           -3.055242e+02 1.071582e+03 -6.756841e+00 -3.054912e+02 1.070398e+03 -3.576262e+00 -3.301262e-02 1.184141e+00 -3.180579e+00
1.96           -3.054570e+02 1.071347e+03 -6.559332e+00 -3.054250e+02 1.070167e+03 -3.383284e+00 -3.201087e-02 1.180506e+00 -3.176049e+00
1.97           -3.055205e+02 1.071547e+03 -6.709405e+00 -3.054895e+02 1.070370e+03 -3.537853e+00 -3.094218e-02 1.176758e+00 -3.171552e+00
1.98           -3.054950e+02 1.071413e+03 -6.995928e+00 -3.054652e+02 1.070240e+03 -3.829033e+00 -2.979158e-02 1.172881e+00 -3.166895e+00
1.99           -3.054341e+02 1.071208e+03 -6.972942e+00 -3.054054e+02 1.070039e+03 -3.810664e+00 -2.866772e-02 1.168993e+00 -3.162278e+00
2              -3.054619e+02 1.071235e+03 -7.092389e+00 -3.054343e+02 1.070070e+03 -3.934664e+00 -2.754169e-02 1.165134e+00 -3.157725e+00
2.01           -3.055199e+02 1.071333e+03 -7.031713e+00 -3.054934e+02 1.070172e+03 -3.878353e+00 -2.645167e-02 1.161396e+00 -3.153360e+00
2.02           -3.054935e+02 1.071175e+03 -7.024725e+00 -3.054682e+02 1.070018e+03 -3.875648e+00 -2.536926e-02 1.157671e+00 -3.149077e+00
2.03           -3.054252e+02 1.070814e+03 -6.926588e+00 -3.054009e+02 1.069660e+03 -3.781686e+00 -2.432116e-02 1.154077e+00 -3.144903e+00
2.04           -3.053845e+02 1.070645e+03 -7.063964e+00 -3.053612e+02 1.069495e+03 -3.923313e+00 -2.328698e-02 1.150474e+00 -3.140650e+00
2.05           -3.055496e+02 1.070751e+03 -7.199104e+00 -3.055272e+02 1.069604e+03 -4.062489e+00 -2.230661e-02 1.147222e+00 -3.136616e+00
2.06           -3.054243e+02 1.070399e+03 -6.994585e+00 -3.054030e+02 1.069255e+03 -3.862154e+00 -2.131021e-02 1.143891e+00 -3.132431e+00
2.07           -3.054551e+02 1.070501e+03 -6.959597e+00 -3.054347e+02 1.069360e+03 -3.831479e+00 -2.033562e-02 1.140611e+00 -3.128118e+00
2.08           -3.053781e+02 1.070205e+03 -6.949971e+00 -3.053587e+02 1.069068e+03 -3.826181e+00 -1.937706e-02 1.137323e+00 -3.123790e+00
2.09           -3.054015e+02 1.070397e+03 -6.919671e+00 -3.053830e+02 1.069263e+03 -3.800154e+00 -1.846842e-02 1.134174e+00 -3.119516e+00
2.1            -3.056292e+02 1.071110e+03 -7.220523e+00 -3.056116e+02 1.069979e+03 -4.104544e+00 -1.757424e-02 1.131239e+00 -3.115979e+00
2.11           -3.055828e+02 1.070943e+03 -7.193204e+00 -3.055661e+02 1.069815e+03 -4.080872e+00 -1.664960e-02 1.128187e+00 -3.112332e+00
2.12           -3.055739e+02 1.070864e+03 -7.071686e+00 -3.055582e+02 1.069739e+03 -3.962937e+00 -1.572426e-02 1.125113e+00 -3.108749e+00
2.13           -3.055273e+02 1.070632e+03 -6.965220e+00 -3.055125e+02 1.069510e+03 -3.860163e+00 -1.475588e-02 1.121950e+00 -3.105057e+00
2.14           -3.054682e+02 1.070389e+03 -7.007695e+00 -3.054544e+02 1.069270e+03 -3.906298e+00 -1.380268e-02 1.118806e+00 -3.101398e+00
2.15           -3.054505e+02 1.070298e+03 -7.001793e+00 -3.054376e+02 1.069183e+03 -3.904044e+00 -1.286682e-02 1.115667e+00 -3.097748e+00
2.16           -3.053792e+02 1.070014e+03 -7.060777e+00 -3.053673e+02 1.068902e+03 -3.966838e+00 -1.192372e-02 1.112466e+00 -3.093939e+00